
 2160 atoms
 2160 bonds
 2880 angles
 2160 impropers
 3 atom types
 3 bond types
 6 angle types
 3 improper types
 0.000000 46.399202 xlo xhi
 0.000000 49.205999 ylo yhi
 0.000000 51.942501 zlo zhi

 Atoms # full

1 1 1 0.00 2.830 5.130 2.140 #  CL1
2 1 2 0.00 2.650 7.000 2.730 #  CL2
3 1 3 0.00 2.620 2.950 2.620 #  CL3
4 2 1 0.00 2.430 4.640 7.340 #  CL1
5 2 2 0.00 2.570 2.810 7.910 #  CL2
6 2 3 0.00 2.580 6.820 7.860 #  CL3
7 3 1 0.00 2.830 5.130 12.530 #  CL1
8 3 2 0.00 2.650 7.000 13.120 #  CL2
9 3 3 0.00 2.620 2.950 13.010 #  CL3
10 4 1 0.00 2.430 4.640 17.730 #  CL1
11 4 2 0.00 2.570 2.810 18.300 #  CL2
12 4 3 0.00 2.580 6.820 18.250 #  CL3
13 5 1 0.00 2.830 5.130 22.920 #  CL1
14 5 2 0.00 2.650 7.000 23.500 #  CL2
15 5 3 0.00 2.620 2.950 23.400 #  CL3
16 6 1 0.00 2.430 4.640 28.120 #  CL1
17 6 2 0.00 2.570 2.810 28.690 #  CL2
18 6 3 0.00 2.580 6.820 28.640 #  CL3
19 7 1 0.00 2.830 5.130 33.310 #  CL1
20 7 2 0.00 2.650 7.000 33.890 #  CL2
21 7 3 0.00 2.620 2.950 33.790 #  CL3
22 8 1 0.00 2.430 4.640 38.500 #  CL1
23 8 2 0.00 2.570 2.810 39.080 #  CL2
24 8 3 0.00 2.580 6.820 39.030 #  CL3
25 9 1 0.00 2.830 5.130 43.700 #  CL1
26 9 2 0.00 2.650 7.000 44.280 #  CL2
27 9 3 0.00 2.620 2.950 44.180 #  CL3
28 10 1 0.00 2.430 4.640 48.890 #  CL1
29 10 2 0.00 2.570 2.810 49.460 #  CL2
30 10 3 0.00 2.580 6.820 49.420 #  CL3
31 11 1 0.00 2.830 13.330 2.140 #  CL1
32 11 2 0.00 2.650 15.200 2.730 #  CL2
33 11 3 0.00 2.620 11.150 2.620 #  CL3
34 12 1 0.00 2.430 12.840 7.340 #  CL1
35 12 2 0.00 2.570 11.010 7.910 #  CL2
36 12 3 0.00 2.580 15.020 7.860 #  CL3
37 13 1 0.00 2.830 13.330 12.530 #  CL1
38 13 2 0.00 2.650 15.200 13.120 #  CL2
39 13 3 0.00 2.620 11.150 13.010 #  CL3
40 14 1 0.00 2.430 12.840 17.730 #  CL1
41 14 2 0.00 2.570 11.010 18.300 #  CL2
42 14 3 0.00 2.580 15.020 18.250 #  CL3
43 15 1 0.00 2.830 13.330 22.920 #  CL1
44 15 2 0.00 2.650 15.200 23.500 #  CL2
45 15 3 0.00 2.620 11.150 23.400 #  CL3
46 16 1 0.00 2.430 12.840 28.120 #  CL1
47 16 2 0.00 2.570 11.010 28.690 #  CL2
48 16 3 0.00 2.580 15.020 28.640 #  CL3
49 17 1 0.00 2.830 13.330 33.310 #  CL1
50 17 2 0.00 2.650 15.200 33.890 #  CL2
51 17 3 0.00 2.620 11.150 33.790 #  CL3
52 18 1 0.00 2.430 12.840 38.500 #  CL1
53 18 2 0.00 2.570 11.010 39.080 #  CL2
54 18 3 0.00 2.580 15.020 39.030 #  CL3
55 19 1 0.00 2.830 13.330 43.700 #  CL1
56 19 2 0.00 2.650 15.200 44.280 #  CL2
57 19 3 0.00 2.620 11.150 44.180 #  CL3
58 20 1 0.00 2.430 12.840 48.890 #  CL1
59 20 2 0.00 2.570 11.010 49.460 #  CL2
60 20 3 0.00 2.580 15.020 49.420 #  CL3
61 21 1 0.00 2.830 21.530 2.140 #  CL1
62 21 2 0.00 2.650 23.400 2.730 #  CL2
63 21 3 0.00 2.620 19.350 2.620 #  CL3
64 22 1 0.00 2.430 21.040 7.340 #  CL1
65 22 2 0.00 2.570 19.210 7.910 #  CL2
66 22 3 0.00 2.580 23.220 7.860 #  CL3
67 23 1 0.00 2.830 21.530 12.530 #  CL1
68 23 2 0.00 2.650 23.400 13.120 #  CL2
69 23 3 0.00 2.620 19.350 13.010 #  CL3
70 24 1 0.00 2.430 21.040 17.730 #  CL1
71 24 2 0.00 2.570 19.210 18.300 #  CL2
72 24 3 0.00 2.580 23.220 18.250 #  CL3
73 25 1 0.00 2.830 21.530 22.920 #  CL1
74 25 2 0.00 2.650 23.400 23.500 #  CL2
75 25 3 0.00 2.620 19.350 23.400 #  CL3
76 26 1 0.00 2.430 21.040 28.120 #  CL1
77 26 2 0.00 2.570 19.210 28.690 #  CL2
78 26 3 0.00 2.580 23.220 28.640 #  CL3
79 27 1 0.00 2.830 21.530 33.310 #  CL1
80 27 2 0.00 2.650 23.400 33.890 #  CL2
81 27 3 0.00 2.620 19.350 33.790 #  CL3
82 28 1 0.00 2.430 21.040 38.500 #  CL1
83 28 2 0.00 2.570 19.210 39.080 #  CL2
84 28 3 0.00 2.580 23.220 39.030 #  CL3
85 29 1 0.00 2.830 21.530 43.700 #  CL1
86 29 2 0.00 2.650 23.400 44.280 #  CL2
87 29 3 0.00 2.620 19.350 44.180 #  CL3
88 30 1 0.00 2.430 21.040 48.890 #  CL1
89 30 2 0.00 2.570 19.210 49.460 #  CL2
90 30 3 0.00 2.580 23.220 49.420 #  CL3
91 31 1 0.00 2.830 29.730 2.140 #  CL1
92 31 2 0.00 2.650 31.600 2.730 #  CL2
93 31 3 0.00 2.620 27.550 2.620 #  CL3
94 32 1 0.00 2.430 29.240 7.340 #  CL1
95 32 2 0.00 2.570 27.410 7.910 #  CL2
96 32 3 0.00 2.580 31.420 7.860 #  CL3
97 33 1 0.00 2.830 29.730 12.530 #  CL1
98 33 2 0.00 2.650 31.600 13.120 #  CL2
99 33 3 0.00 2.620 27.550 13.010 #  CL3
100 34 1 0.00 2.430 29.240 17.730 #  CL1
101 34 2 0.00 2.570 27.410 18.300 #  CL2
102 34 3 0.00 2.580 31.420 18.250 #  CL3
103 35 1 0.00 2.830 29.730 22.920 #  CL1
104 35 2 0.00 2.650 31.600 23.500 #  CL2
105 35 3 0.00 2.620 27.550 23.400 #  CL3
106 36 1 0.00 2.430 29.240 28.120 #  CL1
107 36 2 0.00 2.570 27.410 28.690 #  CL2
108 36 3 0.00 2.580 31.420 28.640 #  CL3
109 37 1 0.00 2.830 29.730 33.310 #  CL1
110 37 2 0.00 2.650 31.600 33.890 #  CL2
111 37 3 0.00 2.620 27.550 33.790 #  CL3
112 38 1 0.00 2.430 29.240 38.500 #  CL1
113 38 2 0.00 2.570 27.410 39.080 #  CL2
114 38 3 0.00 2.580 31.420 39.030 #  CL3
115 39 1 0.00 2.830 29.730 43.700 #  CL1
116 39 2 0.00 2.650 31.600 44.280 #  CL2
117 39 3 0.00 2.620 27.550 44.180 #  CL3
118 40 1 0.00 2.430 29.240 48.890 #  CL1
119 40 2 0.00 2.570 27.410 49.460 #  CL2
120 40 3 0.00 2.580 31.420 49.420 #  CL3
121 41 1 0.00 2.830 37.930 2.140 #  CL1
122 41 2 0.00 2.650 39.800 2.730 #  CL2
123 41 3 0.00 2.620 35.750 2.620 #  CL3
124 42 1 0.00 2.430 37.440 7.340 #  CL1
125 42 2 0.00 2.570 35.610 7.910 #  CL2
126 42 3 0.00 2.580 39.620 7.860 #  CL3
127 43 1 0.00 2.830 37.930 12.530 #  CL1
128 43 2 0.00 2.650 39.800 13.120 #  CL2
129 43 3 0.00 2.620 35.750 13.010 #  CL3
130 44 1 0.00 2.430 37.440 17.730 #  CL1
131 44 2 0.00 2.570 35.610 18.300 #  CL2
132 44 3 0.00 2.580 39.620 18.250 #  CL3
133 45 1 0.00 2.830 37.930 22.920 #  CL1
134 45 2 0.00 2.650 39.800 23.500 #  CL2
135 45 3 0.00 2.620 35.750 23.400 #  CL3
136 46 1 0.00 2.430 37.440 28.120 #  CL1
137 46 2 0.00 2.570 35.610 28.690 #  CL2
138 46 3 0.00 2.580 39.620 28.640 #  CL3
139 47 1 0.00 2.830 37.930 33.310 #  CL1
140 47 2 0.00 2.650 39.800 33.890 #  CL2
141 47 3 0.00 2.620 35.750 33.790 #  CL3
142 48 1 0.00 2.430 37.440 38.500 #  CL1
143 48 2 0.00 2.570 35.610 39.080 #  CL2
144 48 3 0.00 2.580 39.620 39.030 #  CL3
145 49 1 0.00 2.830 37.930 43.700 #  CL1
146 49 2 0.00 2.650 39.800 44.280 #  CL2
147 49 3 0.00 2.620 35.750 44.180 #  CL3
148 50 1 0.00 2.430 37.440 48.890 #  CL1
149 50 2 0.00 2.570 35.610 49.460 #  CL2
150 50 3 0.00 2.580 39.620 49.420 #  CL3
151 51 1 0.00 2.830 46.140 2.140 #  CL1
152 51 2 0.00 2.650 48.010 2.730 #  CL2
153 51 3 0.00 2.620 43.960 2.620 #  CL3
154 52 1 0.00 2.430 45.650 7.340 #  CL1
155 52 2 0.00 2.570 43.820 7.910 #  CL2
156 52 3 0.00 2.580 47.830 7.860 #  CL3
157 53 1 0.00 2.830 46.140 12.530 #  CL1
158 53 2 0.00 2.650 48.010 13.120 #  CL2
159 53 3 0.00 2.620 43.960 13.010 #  CL3
160 54 1 0.00 2.430 45.650 17.730 #  CL1
161 54 2 0.00 2.570 43.820 18.300 #  CL2
162 54 3 0.00 2.580 47.830 18.250 #  CL3
163 55 1 0.00 2.830 46.140 22.920 #  CL1
164 55 2 0.00 2.650 48.010 23.500 #  CL2
165 55 3 0.00 2.620 43.960 23.400 #  CL3
166 56 1 0.00 2.430 45.650 28.120 #  CL1
167 56 2 0.00 2.570 43.810 28.690 #  CL2
168 56 3 0.00 2.580 47.830 28.640 #  CL3
169 57 1 0.00 2.830 46.140 33.310 #  CL1
170 57 2 0.00 2.650 48.010 33.890 #  CL2
171 57 3 0.00 2.620 43.960 33.790 #  CL3
172 58 1 0.00 2.430 45.650 38.500 #  CL1
173 58 2 0.00 2.570 43.820 39.080 #  CL2
174 58 3 0.00 2.580 47.830 39.030 #  CL3
175 59 1 0.00 2.830 46.140 43.700 #  CL1
176 59 2 0.00 2.650 48.010 44.280 #  CL2
177 59 3 0.00 2.620 43.960 44.180 #  CL3
178 60 1 0.00 2.430 45.650 48.890 #  CL1
179 60 2 0.00 2.570 43.820 49.460 #  CL2
180 60 3 0.00 2.580 47.830 49.420 #  CL3
181 61 1 0.00 6.700 9.190 2.140 #  CL1
182 61 2 0.00 6.520 11.060 2.730 #  CL2
183 61 3 0.00 6.490 7.010 2.620 #  CL3
184 62 1 0.00 6.300 8.700 7.340 #  CL1
185 62 2 0.00 6.440 6.870 7.910 #  CL2
186 62 3 0.00 6.450 10.880 7.860 #  CL3
187 63 1 0.00 6.700 9.190 12.530 #  CL1
188 63 2 0.00 6.520 11.060 13.120 #  CL2
189 63 3 0.00 6.490 7.010 13.010 #  CL3
190 64 1 0.00 6.300 8.700 17.730 #  CL1
191 64 2 0.00 6.440 6.870 18.300 #  CL2
192 64 3 0.00 6.450 10.880 18.250 #  CL3
193 65 1 0.00 6.700 9.190 22.920 #  CL1
194 65 2 0.00 6.520 11.060 23.500 #  CL2
195 65 3 0.00 6.490 7.010 23.400 #  CL3
196 66 1 0.00 6.300 8.700 28.120 #  CL1
197 66 2 0.00 6.440 6.870 28.690 #  CL2
198 66 3 0.00 6.450 10.880 28.640 #  CL3
199 67 1 0.00 6.700 9.190 33.310 #  CL1
200 67 2 0.00 6.520 11.060 33.890 #  CL2
201 67 3 0.00 6.490 7.010 33.790 #  CL3
202 68 1 0.00 6.300 8.700 38.500 #  CL1
203 68 2 0.00 6.440 6.870 39.080 #  CL2
204 68 3 0.00 6.450 10.880 39.030 #  CL3
205 69 1 0.00 6.700 9.190 43.700 #  CL1
206 69 2 0.00 6.520 11.060 44.280 #  CL2
207 69 3 0.00 6.490 7.010 44.180 #  CL3
208 70 1 0.00 6.300 8.700 48.890 #  CL1
209 70 2 0.00 6.440 6.870 49.460 #  CL2
210 70 3 0.00 6.450 10.880 49.420 #  CL3
211 71 1 0.00 6.700 17.390 2.140 #  CL1
212 71 2 0.00 6.520 19.260 2.730 #  CL2
213 71 3 0.00 6.490 15.210 2.620 #  CL3
214 72 1 0.00 6.300 16.900 7.340 #  CL1
215 72 2 0.00 6.440 15.070 7.910 #  CL2
216 72 3 0.00 6.450 19.080 7.860 #  CL3
217 73 1 0.00 6.700 17.390 12.530 #  CL1
218 73 2 0.00 6.520 19.260 13.120 #  CL2
219 73 3 0.00 6.490 15.210 13.010 #  CL3
220 74 1 0.00 6.300 16.900 17.730 #  CL1
221 74 2 0.00 6.440 15.070 18.300 #  CL2
222 74 3 0.00 6.450 19.080 18.250 #  CL3
223 75 1 0.00 6.700 17.390 22.920 #  CL1
224 75 2 0.00 6.520 19.260 23.500 #  CL2
225 75 3 0.00 6.490 15.210 23.400 #  CL3
226 76 1 0.00 6.300 16.900 28.120 #  CL1
227 76 2 0.00 6.440 15.070 28.690 #  CL2
228 76 3 0.00 6.450 19.080 28.640 #  CL3
229 77 1 0.00 6.700 17.390 33.310 #  CL1
230 77 2 0.00 6.520 19.260 33.890 #  CL2
231 77 3 0.00 6.490 15.210 33.790 #  CL3
232 78 1 0.00 6.300 16.900 38.500 #  CL1
233 78 2 0.00 6.440 15.070 39.080 #  CL2
234 78 3 0.00 6.450 19.080 39.030 #  CL3
235 79 1 0.00 6.700 17.390 43.700 #  CL1
236 79 2 0.00 6.520 19.260 44.280 #  CL2
237 79 3 0.00 6.490 15.210 44.180 #  CL3
238 80 1 0.00 6.300 16.900 48.890 #  CL1
239 80 2 0.00 6.440 15.070 49.460 #  CL2
240 80 3 0.00 6.450 19.080 49.420 #  CL3
241 81 1 0.00 6.700 25.590 2.140 #  CL1
242 81 2 0.00 6.520 27.460 2.730 #  CL2
243 81 3 0.00 6.490 23.410 2.620 #  CL3
244 82 1 0.00 6.300 25.100 7.340 #  CL1
245 82 2 0.00 6.440 23.270 7.910 #  CL2
246 82 3 0.00 6.450 27.280 7.860 #  CL3
247 83 1 0.00 6.700 25.590 12.530 #  CL1
248 83 2 0.00 6.520 27.460 13.120 #  CL2
249 83 3 0.00 6.490 23.410 13.010 #  CL3
250 84 1 0.00 6.300 25.100 17.730 #  CL1
251 84 2 0.00 6.440 23.270 18.300 #  CL2
252 84 3 0.00 6.450 27.280 18.250 #  CL3
253 85 1 0.00 6.700 25.590 22.920 #  CL1
254 85 2 0.00 6.520 27.460 23.500 #  CL2
255 85 3 0.00 6.490 23.410 23.400 #  CL3
256 86 1 0.00 6.300 25.100 28.120 #  CL1
257 86 2 0.00 6.440 23.270 28.690 #  CL2
258 86 3 0.00 6.450 27.280 28.640 #  CL3
259 87 1 0.00 6.700 25.590 33.310 #  CL1
260 87 2 0.00 6.520 27.460 33.890 #  CL2
261 87 3 0.00 6.490 23.410 33.790 #  CL3
262 88 1 0.00 6.300 25.100 38.500 #  CL1
263 88 2 0.00 6.440 23.270 39.080 #  CL2
264 88 3 0.00 6.450 27.280 39.030 #  CL3
265 89 1 0.00 6.700 25.590 43.700 #  CL1
266 89 2 0.00 6.520 27.460 44.280 #  CL2
267 89 3 0.00 6.490 23.410 44.180 #  CL3
268 90 1 0.00 6.300 25.100 48.890 #  CL1
269 90 2 0.00 6.440 23.270 49.460 #  CL2
270 90 3 0.00 6.450 27.280 49.420 #  CL3
271 91 1 0.00 6.700 33.790 2.140 #  CL1
272 91 2 0.00 6.520 35.660 2.730 #  CL2
273 91 3 0.00 6.490 31.610 2.620 #  CL3
274 92 1 0.00 6.300 33.300 7.340 #  CL1
275 92 2 0.00 6.440 31.470 7.910 #  CL2
276 92 3 0.00 6.450 35.480 7.860 #  CL3
277 93 1 0.00 6.700 33.790 12.530 #  CL1
278 93 2 0.00 6.520 35.660 13.120 #  CL2
279 93 3 0.00 6.490 31.610 13.010 #  CL3
280 94 1 0.00 6.300 33.300 17.730 #  CL1
281 94 2 0.00 6.440 31.470 18.300 #  CL2
282 94 3 0.00 6.450 35.480 18.250 #  CL3
283 95 1 0.00 6.700 33.790 22.920 #  CL1
284 95 2 0.00 6.520 35.660 23.500 #  CL2
285 95 3 0.00 6.490 31.610 23.400 #  CL3
286 96 1 0.00 6.300 33.300 28.120 #  CL1
287 96 2 0.00 6.440 31.470 28.690 #  CL2
288 96 3 0.00 6.450 35.480 28.640 #  CL3
289 97 1 0.00 6.700 33.790 33.310 #  CL1
290 97 2 0.00 6.520 35.660 33.890 #  CL2
291 97 3 0.00 6.490 31.610 33.790 #  CL3
292 98 1 0.00 6.300 33.300 38.500 #  CL1
293 98 2 0.00 6.440 31.470 39.080 #  CL2
294 98 3 0.00 6.450 35.480 39.030 #  CL3
295 99 1 0.00 6.700 33.790 43.700 #  CL1
296 99 2 0.00 6.520 35.660 44.280 #  CL2
297 99 3 0.00 6.490 31.610 44.180 #  CL3
298 100 1 0.00 6.300 33.300 48.890 #  CL1
299 100 2 0.00 6.440 31.470 49.460 #  CL2
300 100 3 0.00 6.450 35.480 49.420 #  CL3
301 101 1 0.00 6.700 41.990 2.140 #  CL1
302 101 2 0.00 6.520 43.860 2.730 #  CL2
303 101 3 0.00 6.490 39.810 2.620 #  CL3
304 102 1 0.00 6.300 41.500 7.340 #  CL1
305 102 2 0.00 6.440 39.670 7.910 #  CL2
306 102 3 0.00 6.450 43.680 7.860 #  CL3
307 103 1 0.00 6.700 41.990 12.530 #  CL1
308 103 2 0.00 6.520 43.860 13.120 #  CL2
309 103 3 0.00 6.490 39.810 13.010 #  CL3
310 104 1 0.00 6.300 41.500 17.730 #  CL1
311 104 2 0.00 6.440 39.670 18.300 #  CL2
312 104 3 0.00 6.450 43.680 18.250 #  CL3
313 105 1 0.00 6.700 41.990 22.920 #  CL1
314 105 2 0.00 6.520 43.860 23.500 #  CL2
315 105 3 0.00 6.490 39.810 23.400 #  CL3
316 106 1 0.00 6.300 41.500 28.120 #  CL1
317 106 2 0.00 6.440 39.670 28.690 #  CL2
318 106 3 0.00 6.450 43.680 28.640 #  CL3
319 107 1 0.00 6.700 41.990 33.310 #  CL1
320 107 2 0.00 6.520 43.860 33.890 #  CL2
321 107 3 0.00 6.490 39.810 33.790 #  CL3
322 108 1 0.00 6.300 41.500 38.500 #  CL1
323 108 2 0.00 6.440 39.670 39.080 #  CL2
324 108 3 0.00 6.450 43.680 39.030 #  CL3
325 109 1 0.00 6.700 41.990 43.700 #  CL1
326 109 2 0.00 6.520 43.860 44.280 #  CL2
327 109 3 0.00 6.490 39.810 44.180 #  CL3
328 110 1 0.00 6.300 41.500 48.890 #  CL1
329 110 2 0.00 6.440 39.670 49.460 #  CL2
330 110 3 0.00 6.450 43.680 49.420 #  CL3
331 111 1 0.00 6.700 50.190 2.140 #  CL1
332 111 2 0.00 6.520 52.060 2.730 #  CL2
333 111 3 0.00 6.490 48.010 2.620 #  CL3
334 112 1 0.00 6.300 49.700 7.340 #  CL1
335 112 2 0.00 6.440 47.870 7.910 #  CL2
336 112 3 0.00 6.450 51.880 7.860 #  CL3
337 113 1 0.00 6.700 50.190 12.530 #  CL1
338 113 2 0.00 6.520 52.060 13.120 #  CL2
339 113 3 0.00 6.490 48.010 13.010 #  CL3
340 114 1 0.00 6.300 49.700 17.730 #  CL1
341 114 2 0.00 6.440 47.870 18.300 #  CL2
342 114 3 0.00 6.450 51.880 18.250 #  CL3
343 115 1 0.00 6.700 50.190 22.920 #  CL1
344 115 2 0.00 6.520 52.060 23.500 #  CL2
345 115 3 0.00 6.490 48.010 23.400 #  CL3
346 116 1 0.00 6.300 49.700 28.120 #  CL1
347 116 2 0.00 6.440 47.870 28.690 #  CL2
348 116 3 0.00 6.450 51.880 28.640 #  CL3
349 117 1 0.00 6.700 50.190 33.310 #  CL1
350 117 2 0.00 6.520 52.060 33.890 #  CL2
351 117 3 0.00 6.490 48.010 33.790 #  CL3
352 118 1 0.00 6.300 49.700 38.500 #  CL1
353 118 2 0.00 6.440 47.870 39.080 #  CL2
354 118 3 0.00 6.450 51.880 39.030 #  CL3
355 119 1 0.00 6.700 50.190 43.700 #  CL1
356 119 2 0.00 6.520 52.060 44.280 #  CL2
357 119 3 0.00 6.490 48.010 44.180 #  CL3
358 120 1 0.00 6.300 49.700 48.890 #  CL1
359 120 2 0.00 6.440 47.870 49.460 #  CL2
360 120 3 0.00 6.450 51.880 49.420 #  CL3
361 121 1 0.00 10.560 4.240 2.140 #  CL1
362 121 2 0.00 10.380 6.110 2.730 #  CL2
363 121 3 0.00 10.350 2.060 2.620 #  CL3
364 122 1 0.00 10.160 3.750 7.340 #  CL1
365 122 2 0.00 10.300 1.920 7.910 #  CL2
366 122 3 0.00 10.310 5.930 7.860 #  CL3
367 123 1 0.00 10.560 4.240 12.530 #  CL1
368 123 2 0.00 10.380 6.110 13.120 #  CL2
369 123 3 0.00 10.350 2.060 13.010 #  CL3
370 124 1 0.00 10.160 3.750 17.730 #  CL1
371 124 2 0.00 10.300 1.920 18.300 #  CL2
372 124 3 0.00 10.310 5.930 18.250 #  CL3
373 125 1 0.00 10.560 4.240 22.920 #  CL1
374 125 2 0.00 10.380 6.110 23.500 #  CL2
375 125 3 0.00 10.350 2.060 23.400 #  CL3
376 126 1 0.00 10.160 3.750 28.120 #  CL1
377 126 2 0.00 10.300 1.920 28.690 #  CL2
378 126 3 0.00 10.310 5.930 28.640 #  CL3
379 127 1 0.00 10.560 4.240 33.310 #  CL1
380 127 2 0.00 10.380 6.110 33.890 #  CL2
381 127 3 0.00 10.350 2.060 33.790 #  CL3
382 128 1 0.00 10.160 3.750 38.500 #  CL1
383 128 2 0.00 10.300 1.920 39.080 #  CL2
384 128 3 0.00 10.310 5.930 39.030 #  CL3
385 129 1 0.00 10.560 4.240 43.700 #  CL1
386 129 2 0.00 10.380 6.110 44.280 #  CL2
387 129 3 0.00 10.350 2.060 44.180 #  CL3
388 130 1 0.00 10.160 3.750 48.890 #  CL1
389 130 2 0.00 10.300 1.920 49.460 #  CL2
390 130 3 0.00 10.310 5.930 49.420 #  CL3
391 131 1 0.00 10.560 12.440 2.140 #  CL1
392 131 2 0.00 10.380 14.310 2.730 #  CL2
393 131 3 0.00 10.350 10.260 2.620 #  CL3
394 132 1 0.00 10.160 11.950 7.340 #  CL1
395 132 2 0.00 10.300 10.120 7.910 #  CL2
396 132 3 0.00 10.310 14.130 7.860 #  CL3
397 133 1 0.00 10.560 12.440 12.530 #  CL1
398 133 2 0.00 10.380 14.310 13.120 #  CL2
399 133 3 0.00 10.350 10.260 13.010 #  CL3
400 134 1 0.00 10.160 11.950 17.730 #  CL1
401 134 2 0.00 10.300 10.120 18.300 #  CL2
402 134 3 0.00 10.310 14.130 18.250 #  CL3
403 135 1 0.00 10.560 12.440 22.920 #  CL1
404 135 2 0.00 10.380 14.310 23.500 #  CL2
405 135 3 0.00 10.350 10.260 23.400 #  CL3
406 136 1 0.00 10.160 11.950 28.120 #  CL1
407 136 2 0.00 10.300 10.120 28.690 #  CL2
408 136 3 0.00 10.310 14.130 28.640 #  CL3
409 137 1 0.00 10.560 12.440 33.310 #  CL1
410 137 2 0.00 10.380 14.310 33.890 #  CL2
411 137 3 0.00 10.350 10.260 33.790 #  CL3
412 138 1 0.00 10.160 11.950 38.500 #  CL1
413 138 2 0.00 10.300 10.120 39.080 #  CL2
414 138 3 0.00 10.310 14.130 39.030 #  CL3
415 139 1 0.00 10.560 12.440 43.700 #  CL1
416 139 2 0.00 10.380 14.310 44.280 #  CL2
417 139 3 0.00 10.350 10.260 44.180 #  CL3
418 140 1 0.00 10.160 11.950 48.890 #  CL1
419 140 2 0.00 10.300 10.120 49.460 #  CL2
420 140 3 0.00 10.310 14.130 49.420 #  CL3
421 141 1 0.00 10.560 20.640 2.140 #  CL1
422 141 2 0.00 10.380 22.510 2.730 #  CL2
423 141 3 0.00 10.350 18.460 2.620 #  CL3
424 142 1 0.00 10.160 20.150 7.340 #  CL1
425 142 2 0.00 10.300 18.320 7.910 #  CL2
426 142 3 0.00 10.310 22.330 7.860 #  CL3
427 143 1 0.00 10.560 20.640 12.530 #  CL1
428 143 2 0.00 10.380 22.510 13.120 #  CL2
429 143 3 0.00 10.350 18.460 13.010 #  CL3
430 144 1 0.00 10.160 20.150 17.730 #  CL1
431 144 2 0.00 10.300 18.320 18.300 #  CL2
432 144 3 0.00 10.310 22.330 18.250 #  CL3
433 145 1 0.00 10.560 20.640 22.920 #  CL1
434 145 2 0.00 10.380 22.510 23.500 #  CL2
435 145 3 0.00 10.350 18.460 23.400 #  CL3
436 146 1 0.00 10.160 20.150 28.120 #  CL1
437 146 2 0.00 10.300 18.320 28.690 #  CL2
438 146 3 0.00 10.310 22.330 28.640 #  CL3
439 147 1 0.00 10.560 20.640 33.310 #  CL1
440 147 2 0.00 10.380 22.510 33.890 #  CL2
441 147 3 0.00 10.350 18.460 33.790 #  CL3
442 148 1 0.00 10.160 20.150 38.500 #  CL1
443 148 2 0.00 10.300 18.320 39.080 #  CL2
444 148 3 0.00 10.310 22.330 39.030 #  CL3
445 149 1 0.00 10.560 20.640 43.700 #  CL1
446 149 2 0.00 10.380 22.510 44.280 #  CL2
447 149 3 0.00 10.350 18.460 44.180 #  CL3
448 150 1 0.00 10.160 20.150 48.890 #  CL1
449 150 2 0.00 10.300 18.320 49.460 #  CL2
450 150 3 0.00 10.310 22.330 49.420 #  CL3
451 151 1 0.00 10.560 28.850 2.140 #  CL1
452 151 2 0.00 10.380 30.720 2.730 #  CL2
453 151 3 0.00 10.350 26.670 2.620 #  CL3
454 152 1 0.00 10.160 28.350 7.340 #  CL1
455 152 2 0.00 10.300 26.520 7.910 #  CL2
456 152 3 0.00 10.310 30.530 7.860 #  CL3
457 153 1 0.00 10.560 28.850 12.530 #  CL1
458 153 2 0.00 10.380 30.720 13.120 #  CL2
459 153 3 0.00 10.350 26.670 13.010 #  CL3
460 154 1 0.00 10.160 28.350 17.730 #  CL1
461 154 2 0.00 10.300 26.520 18.300 #  CL2
462 154 3 0.00 10.310 30.530 18.250 #  CL3
463 155 1 0.00 10.560 28.850 22.920 #  CL1
464 155 2 0.00 10.380 30.720 23.500 #  CL2
465 155 3 0.00 10.350 26.670 23.400 #  CL3
466 156 1 0.00 10.160 28.350 28.120 #  CL1
467 156 2 0.00 10.300 26.520 28.690 #  CL2
468 156 3 0.00 10.310 30.530 28.640 #  CL3
469 157 1 0.00 10.560 28.850 33.310 #  CL1
470 157 2 0.00 10.380 30.720 33.890 #  CL2
471 157 3 0.00 10.350 26.670 33.790 #  CL3
472 158 1 0.00 10.160 28.350 38.500 #  CL1
473 158 2 0.00 10.300 26.520 39.080 #  CL2
474 158 3 0.00 10.310 30.530 39.030 #  CL3
475 159 1 0.00 10.560 28.850 43.700 #  CL1
476 159 2 0.00 10.380 30.720 44.280 #  CL2
477 159 3 0.00 10.350 26.670 44.180 #  CL3
478 160 1 0.00 10.160 28.350 48.890 #  CL1
479 160 2 0.00 10.300 26.520 49.460 #  CL2
480 160 3 0.00 10.310 30.530 49.420 #  CL3
481 161 1 0.00 10.560 37.050 2.140 #  CL1
482 161 2 0.00 10.380 38.920 2.730 #  CL2
483 161 3 0.00 10.350 34.870 2.620 #  CL3
484 162 1 0.00 10.160 36.560 7.340 #  CL1
485 162 2 0.00 10.300 34.730 7.910 #  CL2
486 162 3 0.00 10.310 38.740 7.860 #  CL3
487 163 1 0.00 10.560 37.050 12.530 #  CL1
488 163 2 0.00 10.380 38.920 13.120 #  CL2
489 163 3 0.00 10.350 34.870 13.010 #  CL3
490 164 1 0.00 10.160 36.560 17.730 #  CL1
491 164 2 0.00 10.300 34.730 18.300 #  CL2
492 164 3 0.00 10.310 38.740 18.250 #  CL3
493 165 1 0.00 10.560 37.050 22.920 #  CL1
494 165 2 0.00 10.380 38.920 23.500 #  CL2
495 165 3 0.00 10.350 34.870 23.400 #  CL3
496 166 1 0.00 10.160 36.560 28.120 #  CL1
497 166 2 0.00 10.300 34.730 28.690 #  CL2
498 166 3 0.00 10.310 38.740 28.640 #  CL3
499 167 1 0.00 10.560 37.050 33.310 #  CL1
500 167 2 0.00 10.380 38.920 33.890 #  CL2
501 167 3 0.00 10.350 34.870 33.790 #  CL3
502 168 1 0.00 10.160 36.560 38.500 #  CL1
503 168 2 0.00 10.300 34.730 39.080 #  CL2
504 168 3 0.00 10.310 38.740 39.030 #  CL3
505 169 1 0.00 10.560 37.050 43.700 #  CL1
506 169 2 0.00 10.380 38.920 44.280 #  CL2
507 169 3 0.00 10.350 34.870 44.180 #  CL3
508 170 1 0.00 10.160 36.560 48.890 #  CL1
509 170 2 0.00 10.300 34.730 49.460 #  CL2
510 170 3 0.00 10.310 38.740 49.420 #  CL3
511 171 1 0.00 10.560 45.250 2.140 #  CL1
512 171 2 0.00 10.380 47.120 2.730 #  CL2
513 171 3 0.00 10.350 43.070 2.620 #  CL3
514 172 1 0.00 10.160 44.760 7.340 #  CL1
515 172 2 0.00 10.300 42.930 7.910 #  CL2
516 172 3 0.00 10.310 46.940 7.860 #  CL3
517 173 1 0.00 10.560 45.250 12.530 #  CL1
518 173 2 0.00 10.380 47.120 13.120 #  CL2
519 173 3 0.00 10.350 43.070 13.010 #  CL3
520 174 1 0.00 10.160 44.760 17.730 #  CL1
521 174 2 0.00 10.300 42.930 18.300 #  CL2
522 174 3 0.00 10.310 46.940 18.250 #  CL3
523 175 1 0.00 10.560 45.250 22.920 #  CL1
524 175 2 0.00 10.380 47.120 23.500 #  CL2
525 175 3 0.00 10.350 43.070 23.400 #  CL3
526 176 1 0.00 10.160 44.760 28.120 #  CL1
527 176 2 0.00 10.300 42.930 28.690 #  CL2
528 176 3 0.00 10.310 46.940 28.640 #  CL3
529 177 1 0.00 10.560 45.250 33.310 #  CL1
530 177 2 0.00 10.380 47.120 33.890 #  CL2
531 177 3 0.00 10.350 43.070 33.790 #  CL3
532 178 1 0.00 10.160 44.760 38.500 #  CL1
533 178 2 0.00 10.300 42.930 39.080 #  CL2
534 178 3 0.00 10.310 46.940 39.030 #  CL3
535 179 1 0.00 10.560 45.250 43.700 #  CL1
536 179 2 0.00 10.380 47.120 44.280 #  CL2
537 179 3 0.00 10.350 43.070 44.180 #  CL3
538 180 1 0.00 10.160 44.760 48.890 #  CL1
539 180 2 0.00 10.300 42.930 49.460 #  CL2
540 180 3 0.00 10.310 46.940 49.420 #  CL3
541 181 1 0.00 14.430 8.300 2.140 #  CL1
542 181 2 0.00 14.250 10.170 2.730 #  CL2
543 181 3 0.00 14.220 6.120 2.620 #  CL3
544 182 1 0.00 14.030 7.810 7.340 #  CL1
545 182 2 0.00 14.170 5.980 7.910 #  CL2
546 182 3 0.00 14.180 9.990 7.860 #  CL3
547 183 1 0.00 14.430 8.300 12.530 #  CL1
548 183 2 0.00 14.250 10.170 13.120 #  CL2
549 183 3 0.00 14.220 6.120 13.010 #  CL3
550 184 1 0.00 14.030 7.810 17.730 #  CL1
551 184 2 0.00 14.170 5.980 18.300 #  CL2
552 184 3 0.00 14.180 9.990 18.250 #  CL3
553 185 1 0.00 14.430 8.300 22.920 #  CL1
554 185 2 0.00 14.250 10.170 23.500 #  CL2
555 185 3 0.00 14.220 6.120 23.400 #  CL3
556 186 1 0.00 14.030 7.810 28.120 #  CL1
557 186 2 0.00 14.170 5.980 28.690 #  CL2
558 186 3 0.00 14.180 9.990 28.640 #  CL3
559 187 1 0.00 14.430 8.300 33.310 #  CL1
560 187 2 0.00 14.250 10.170 33.890 #  CL2
561 187 3 0.00 14.220 6.120 33.790 #  CL3
562 188 1 0.00 14.030 7.810 38.500 #  CL1
563 188 2 0.00 14.170 5.980 39.080 #  CL2
564 188 3 0.00 14.180 9.990 39.030 #  CL3
565 189 1 0.00 14.430 8.300 43.700 #  CL1
566 189 2 0.00 14.250 10.170 44.280 #  CL2
567 189 3 0.00 14.220 6.120 44.180 #  CL3
568 190 1 0.00 14.030 7.810 48.890 #  CL1
569 190 2 0.00 14.170 5.980 49.460 #  CL2
570 190 3 0.00 14.180 9.990 49.420 #  CL3
571 191 1 0.00 14.430 16.500 2.140 #  CL1
572 191 2 0.00 14.250 18.370 2.730 #  CL2
573 191 3 0.00 14.220 14.320 2.620 #  CL3
574 192 1 0.00 14.030 16.010 7.340 #  CL1
575 192 2 0.00 14.170 14.180 7.910 #  CL2
576 192 3 0.00 14.180 18.190 7.860 #  CL3
577 193 1 0.00 14.430 16.500 12.530 #  CL1
578 193 2 0.00 14.250 18.370 13.120 #  CL2
579 193 3 0.00 14.220 14.320 13.010 #  CL3
580 194 1 0.00 14.030 16.010 17.730 #  CL1
581 194 2 0.00 14.170 14.180 18.300 #  CL2
582 194 3 0.00 14.180 18.190 18.250 #  CL3
583 195 1 0.00 14.430 16.500 22.920 #  CL1
584 195 2 0.00 14.250 18.370 23.500 #  CL2
585 195 3 0.00 14.220 14.320 23.400 #  CL3
586 196 1 0.00 14.030 16.010 28.120 #  CL1
587 196 2 0.00 14.170 14.180 28.690 #  CL2
588 196 3 0.00 14.180 18.190 28.640 #  CL3
589 197 1 0.00 14.430 16.500 33.310 #  CL1
590 197 2 0.00 14.250 18.370 33.890 #  CL2
591 197 3 0.00 14.220 14.320 33.790 #  CL3
592 198 1 0.00 14.030 16.010 38.500 #  CL1
593 198 2 0.00 14.170 14.180 39.080 #  CL2
594 198 3 0.00 14.180 18.190 39.030 #  CL3
595 199 1 0.00 14.430 16.500 43.700 #  CL1
596 199 2 0.00 14.250 18.370 44.280 #  CL2
597 199 3 0.00 14.220 14.320 44.180 #  CL3
598 200 1 0.00 14.030 16.010 48.890 #  CL1
599 200 2 0.00 14.170 14.180 49.460 #  CL2
600 200 3 0.00 14.180 18.190 49.420 #  CL3
601 201 1 0.00 14.430 24.700 2.140 #  CL1
602 201 2 0.00 14.250 26.570 2.730 #  CL2
603 201 3 0.00 14.220 22.520 2.620 #  CL3
604 202 1 0.00 14.030 24.210 7.340 #  CL1
605 202 2 0.00 14.170 22.380 7.910 #  CL2
606 202 3 0.00 14.180 26.390 7.860 #  CL3
607 203 1 0.00 14.430 24.700 12.530 #  CL1
608 203 2 0.00 14.250 26.570 13.120 #  CL2
609 203 3 0.00 14.220 22.520 13.010 #  CL3
610 204 1 0.00 14.030 24.210 17.730 #  CL1
611 204 2 0.00 14.170 22.380 18.300 #  CL2
612 204 3 0.00 14.180 26.390 18.250 #  CL3
613 205 1 0.00 14.430 24.700 22.920 #  CL1
614 205 2 0.00 14.250 26.570 23.500 #  CL2
615 205 3 0.00 14.220 22.520 23.400 #  CL3
616 206 1 0.00 14.030 24.210 28.120 #  CL1
617 206 2 0.00 14.170 22.380 28.690 #  CL2
618 206 3 0.00 14.180 26.390 28.640 #  CL3
619 207 1 0.00 14.430 24.700 33.310 #  CL1
620 207 2 0.00 14.250 26.570 33.890 #  CL2
621 207 3 0.00 14.220 22.520 33.790 #  CL3
622 208 1 0.00 14.030 24.210 38.500 #  CL1
623 208 2 0.00 14.170 22.380 39.080 #  CL2
624 208 3 0.00 14.180 26.390 39.030 #  CL3
625 209 1 0.00 14.430 24.700 43.700 #  CL1
626 209 2 0.00 14.250 26.570 44.280 #  CL2
627 209 3 0.00 14.220 22.520 44.180 #  CL3
628 210 1 0.00 14.030 24.210 48.890 #  CL1
629 210 2 0.00 14.170 22.380 49.460 #  CL2
630 210 3 0.00 14.180 26.390 49.420 #  CL3
631 211 1 0.00 14.430 32.900 2.140 #  CL1
632 211 2 0.00 14.250 34.770 2.730 #  CL2
633 211 3 0.00 14.220 30.720 2.620 #  CL3
634 212 1 0.00 14.030 32.410 7.340 #  CL1
635 212 2 0.00 14.170 30.580 7.910 #  CL2
636 212 3 0.00 14.180 34.590 7.860 #  CL3
637 213 1 0.00 14.430 32.900 12.530 #  CL1
638 213 2 0.00 14.250 34.770 13.120 #  CL2
639 213 3 0.00 14.220 30.720 13.010 #  CL3
640 214 1 0.00 14.030 32.410 17.730 #  CL1
641 214 2 0.00 14.170 30.580 18.300 #  CL2
642 214 3 0.00 14.180 34.590 18.250 #  CL3
643 215 1 0.00 14.430 32.900 22.920 #  CL1
644 215 2 0.00 14.250 34.770 23.500 #  CL2
645 215 3 0.00 14.220 30.720 23.400 #  CL3
646 216 1 0.00 14.030 32.410 28.120 #  CL1
647 216 2 0.00 14.170 30.580 28.690 #  CL2
648 216 3 0.00 14.180 34.590 28.640 #  CL3
649 217 1 0.00 14.430 32.900 33.310 #  CL1
650 217 2 0.00 14.250 34.770 33.890 #  CL2
651 217 3 0.00 14.220 30.720 33.790 #  CL3
652 218 1 0.00 14.030 32.410 38.500 #  CL1
653 218 2 0.00 14.170 30.580 39.080 #  CL2
654 218 3 0.00 14.180 34.590 39.030 #  CL3
655 219 1 0.00 14.430 32.900 43.700 #  CL1
656 219 2 0.00 14.250 34.770 44.280 #  CL2
657 219 3 0.00 14.220 30.720 44.180 #  CL3
658 220 1 0.00 14.030 32.410 48.890 #  CL1
659 220 2 0.00 14.170 30.580 49.460 #  CL2
660 220 3 0.00 14.180 34.590 49.420 #  CL3
661 221 1 0.00 14.430 41.100 2.140 #  CL1
662 221 2 0.00 14.250 42.970 2.730 #  CL2
663 221 3 0.00 14.220 38.920 2.620 #  CL3
664 222 1 0.00 14.030 40.610 7.340 #  CL1
665 222 2 0.00 14.170 38.780 7.910 #  CL2
666 222 3 0.00 14.180 42.790 7.860 #  CL3
667 223 1 0.00 14.430 41.100 12.530 #  CL1
668 223 2 0.00 14.250 42.970 13.120 #  CL2
669 223 3 0.00 14.220 38.920 13.010 #  CL3
670 224 1 0.00 14.030 40.610 17.730 #  CL1
671 224 2 0.00 14.170 38.780 18.300 #  CL2
672 224 3 0.00 14.180 42.790 18.250 #  CL3
673 225 1 0.00 14.430 41.100 22.920 #  CL1
674 225 2 0.00 14.250 42.970 23.500 #  CL2
675 225 3 0.00 14.220 38.920 23.400 #  CL3
676 226 1 0.00 14.030 40.610 28.120 #  CL1
677 226 2 0.00 14.170 38.780 28.690 #  CL2
678 226 3 0.00 14.180 42.790 28.640 #  CL3
679 227 1 0.00 14.430 41.100 33.310 #  CL1
680 227 2 0.00 14.250 42.970 33.890 #  CL2
681 227 3 0.00 14.220 38.920 33.790 #  CL3
682 228 1 0.00 14.030 40.610 38.500 #  CL1
683 228 2 0.00 14.170 38.780 39.080 #  CL2
684 228 3 0.00 14.180 42.790 39.030 #  CL3
685 229 1 0.00 14.430 41.100 43.700 #  CL1
686 229 2 0.00 14.250 42.970 44.280 #  CL2
687 229 3 0.00 14.220 38.920 44.180 #  CL3
688 230 1 0.00 14.030 40.610 48.890 #  CL1
689 230 2 0.00 14.170 38.780 49.460 #  CL2
690 230 3 0.00 14.180 42.790 49.420 #  CL3
691 231 1 0.00 14.430 49.300 2.140 #  CL1
692 231 2 0.00 14.250 51.170 2.730 #  CL2
693 231 3 0.00 14.220 47.120 2.620 #  CL3
694 232 1 0.00 14.030 48.810 7.340 #  CL1
695 232 2 0.00 14.170 46.980 7.910 #  CL2
696 232 3 0.00 14.180 50.990 7.860 #  CL3
697 233 1 0.00 14.430 49.300 12.530 #  CL1
698 233 2 0.00 14.250 51.170 13.120 #  CL2
699 233 3 0.00 14.220 47.120 13.010 #  CL3
700 234 1 0.00 14.030 48.810 17.730 #  CL1
701 234 2 0.00 14.170 46.980 18.300 #  CL2
702 234 3 0.00 14.180 50.990 18.250 #  CL3
703 235 1 0.00 14.430 49.300 22.920 #  CL1
704 235 2 0.00 14.250 51.170 23.500 #  CL2
705 235 3 0.00 14.220 47.120 23.400 #  CL3
706 236 1 0.00 14.030 48.810 28.120 #  CL1
707 236 2 0.00 14.170 46.980 28.690 #  CL2
708 236 3 0.00 14.180 50.990 28.640 #  CL3
709 237 1 0.00 14.430 49.300 33.310 #  CL1
710 237 2 0.00 14.250 51.170 33.890 #  CL2
711 237 3 0.00 14.220 47.120 33.790 #  CL3
712 238 1 0.00 14.030 48.810 38.500 #  CL1
713 238 2 0.00 14.170 46.980 39.080 #  CL2
714 238 3 0.00 14.180 50.990 39.030 #  CL3
715 239 1 0.00 14.430 49.300 43.700 #  CL1
716 239 2 0.00 14.250 51.170 44.280 #  CL2